[Molden Format]
[Geometries] (XYZ)
16
Energy: 0.0
C      -1.060017      -1.517146       0.052887
C      -1.829554      -0.594086      -0.539688
C      -2.012604       0.793709      -0.089780
C      -1.097406       1.540951       0.541104
H      -2.400633      -0.882356      -1.423216
H      -0.513652      -1.303832       0.968289
H      -0.966890      -2.521220      -0.351177
H      -1.320890       2.556285       0.856673
H      -0.094545       1.173901       0.744815
H      -2.981424       1.238281      -0.320708
C       3.018414      -0.332740       0.534205
C       2.482680       0.169904      -0.576610
H       3.891712       0.112541       1.005362
H       2.608491      -1.215917       1.019022
H       1.608060      -0.276406      -1.043738
H       2.895264       1.050961      -1.063014

16
Energy: 0.044524937868118286
C      -0.938040      -1.531110       0.043923
C      -1.752183      -0.612675      -0.492991
C      -1.911225       0.785467      -0.078683
C      -0.980760       1.568716       0.490091
H      -2.392201      -0.925551      -1.314680
H      -0.454553      -1.387893       1.006044
H      -0.823922      -2.501898      -0.426465
H      -1.196059       2.609422       0.700852
H      -0.009243       1.218153       0.821826
H      -2.884910       1.222812      -0.287833
C       2.816521      -0.342606       0.538294
C       2.325984       0.209842      -0.569812
H       3.637599       0.123513       1.072469
H       2.495231      -1.298921       0.937841
H       1.500395      -0.228741      -1.117031
H       2.794372       1.084298      -1.009419

16
Energy: 0.451456643640995
C      -0.831177      -1.566772       0.039070
C      -1.702577      -0.642006      -0.443744
C      -1.837039       0.781913      -0.069097
C      -0.866499       1.616057       0.435020
H      -2.414564      -0.984464      -1.191799
H      -0.426576      -1.516755       1.047051
H      -0.698217      -2.499040      -0.504191
H      -1.073783       2.678027       0.532079
H       0.061493       1.305249       0.906499
H      -2.818640       1.215122      -0.248970
C       2.636828      -0.357144       0.544654
C       2.198193       0.259998      -0.569813
H       3.393365       0.130270       1.155681
H       2.438681      -1.379621       0.848782
H       1.437574      -0.172949      -1.210979
H       2.729944       1.124944      -0.955814

16
Energy: 1.5163188204169273
C      -0.708644      -1.610218       0.043725
C      -1.651375      -0.671433      -0.404015
C      -1.769678       0.781766      -0.068427
C      -0.729837       1.665248       0.383659
H      -2.417906      -1.048967      -1.081121
H      -0.391786      -1.652252       1.086030
H      -0.551858      -2.500053      -0.567489
H      -0.918552       2.740851       0.383793
H       0.144736       1.394788       0.977808
H      -2.757692       1.218103      -0.215566
C       2.443336      -0.380867       0.552605
C       2.048036       0.319081      -0.576411
H       3.127070       0.118468       1.241289
H       2.370962      -1.445574       0.765260
H       1.349703      -0.107250      -1.297150
H       2.640492       1.171137      -0.909562

16
Energy: 7.172742836177349
C      -0.087584      -1.301043       0.141049
C      -1.181560      -0.460269      -0.294134
C      -1.270283       0.619109      -0.103136
C      -0.221032       1.324419       0.165761
H      -1.989252      -0.937887      -0.847858
H       0.068005      -1.486422       1.212545
H       0.152585      -2.100877      -0.574428
H      -0.296766       2.408141       0.028739
H       0.529019       1.065033       0.928096
H      -2.245361       1.101132      -0.167017
C       1.489579      -0.478679       0.529183
C       1.174892       0.438977      -0.530007
H       2.007622       0.012436       1.368258
H       1.642148      -1.558252       0.555693
H       0.586756       0.078778      -1.384419
H       1.868239       1.268235      -0.713897

16
Energy: 2.353248618543148
C      -0.143997      -1.503229       0.078543
C      -1.271611      -0.647753      -0.344691
C      -1.374855       0.634008      -0.188158
C      -0.303394       1.487306       0.131727
H      -2.107765      -1.158630      -0.821375
H      -0.226995      -1.859821       1.112037
H       0.139028      -2.229130      -0.695802
H      -0.432027       2.516765      -0.223788
H       0.154394       1.456855       1.130200
H      -2.354518       1.092264      -0.321232
C       1.591818      -0.440830       0.601311
C       1.403518       0.558700      -0.423867
H       1.811348      -0.023972       1.593179
H       2.046087      -1.433557       0.524241
H       1.053578       0.190577      -1.395669
H       2.158745       1.351493      -0.436652

16
Energy: 0.33371932059526443
C      -0.097407      -1.510890       0.086362
C      -1.283448      -0.680609      -0.229777
C      -1.348698       0.629096      -0.156673
C      -0.208302       1.494033       0.049313
H      -2.170774      -1.216932      -0.558889
H      -0.191352      -2.055186       1.030851
H       0.160273      -2.155815      -0.760296
H      -0.313577       2.465456      -0.444929
H       0.108580       1.646835       1.088578
H      -2.318289       1.108588      -0.269531
C       1.449122      -0.503729       0.563487
C       1.358411       0.620341      -0.387681
H       1.558723      -0.152329       1.594137
H       2.099951      -1.370320       0.422756
H       1.182519       0.313602      -1.422593
H       2.157622       1.358905      -0.285111

16
Energy: -1.2061532065272331
C      -0.051289      -1.518365       0.081446
C      -1.279517      -0.696870      -0.129916
C      -1.321866       0.630022      -0.121113
C      -0.133248       1.504918      -0.002872
H      -2.198656      -1.243964      -0.317739
H      -0.164722      -2.209440       0.921423
H       0.175309      -2.086363      -0.825615
H      -0.228235       2.399810      -0.623412
H       0.049529       1.835740       1.025955
H      -2.284297       1.123084      -0.220171
C       1.340336      -0.566306       0.520028
C       1.312502       0.656753      -0.347741
H       1.357785      -0.284467       1.576215
H       2.148098      -1.281276       0.353711
H       1.268323       0.400143      -1.409405
H       2.153302       1.327626      -0.160792

16
Energy: -2.0773742720484734
C       0.018565      -1.505102       0.071755
C      -1.254726      -0.702912      -0.048283
C      -1.285511       0.633242      -0.085278
C      -0.048111       1.496966      -0.044220
H      -2.187944      -1.262829      -0.104375
H      -0.121338      -2.316354       0.799873
H       0.226636      -2.006431      -0.887349
H      -0.137620       2.309803      -0.778494
H       0.019570       1.995007       0.936447
H      -2.244815       1.145933      -0.151545
C       1.216014      -0.631689       0.479480
C       1.229452       0.684821      -0.310339
H       1.148348      -0.405323       1.552809
H       2.153272      -1.182597       0.331990
H       1.295645       0.458374      -1.383898
H       2.115916       1.280139      -0.058569
[GEOCONV]
energy
  0.000000000000
  0.044524937868
  0.451456643641
  1.516318820417
  7.172742836177
  2.353248618543
  0.333719320595
 -1.206153206527
 -2.077374272048
max-force
  0.000000000000
  0.000000000000
  0.000000000000
  0.000000000000
  0.000000000000
  0.000000000000
  0.000000000000
  0.000000000000
  0.000000000000
max-step
             nan
             nan
             nan
             nan
             nan
             nan
             nan
             nan
             nan