[Molden Format]
[Geometries] (XYZ)
16
Energy: 0.0
C      -0.956531      -1.415548       0.197754
C      -1.936483      -0.600085      -0.606091
C      -2.106482       0.839849      -0.190713
C      -0.950682       1.423092       0.586328
H      -1.833338      -0.720132      -1.686407
H      -1.346817      -1.598253       1.203917
H      -0.803170      -2.393086      -0.269423
H      -1.206454       2.422508       0.951233
H      -0.072820       1.531113      -0.058567
H      -3.064837       0.995028       0.311168
C       2.868310      -0.188478       0.717697
C       2.630879       0.022349      -0.759173
H       3.907966       0.040303       0.969794
H       2.686648      -1.233779       0.984287
H       1.588870      -0.197467      -1.009456
H       2.821948       1.065414      -1.027921

16
Energy: 0.4418890816414025
C      -0.799481      -1.366503       0.210627
C      -1.918193      -0.638874      -0.494001
C      -2.032367       0.842222      -0.206335
C      -0.877116       1.460088       0.544680
H      -1.934155      -0.835841      -1.568979
H      -1.125640      -1.691047       1.203351
H      -0.510551      -2.261574      -0.348418
H      -1.016705       2.540141       0.643285
H       0.078063       1.274850       0.045675
H      -2.982941       1.049809       0.292752
C       2.558676      -0.261440       0.732410
C       2.494284       0.091718      -0.733264
H       3.493054       0.101494       1.170772
H       2.535348      -1.347626       0.859808
H       1.497605      -0.104773      -1.136619
H       2.753778       1.139900      -0.900428

16
Energy: 2.4864997230262404
C      -0.663262      -1.342407       0.194545
C      -1.874131      -0.663102      -0.393322
C      -1.961334       0.838199      -0.229774
C      -0.816632       1.515660       0.475926
H      -2.068396      -0.967068      -1.424989
H      -0.900303      -1.757344       1.178403
H      -0.328863      -2.164691      -0.444836
H      -0.866044       2.603146       0.400238
H       0.173084       1.124264       0.240523
H      -2.915444       1.100430       0.235600
C       2.328024      -0.327636       0.730968
C       2.354351       0.169003      -0.688115
H       3.143677       0.116910       1.308756
H       2.457407      -1.413373       0.755216
H       1.429414      -0.032733      -1.229358
H       2.711772       1.193066      -0.793776

16
Energy: 8.6076027434482
C      -0.546377      -1.288196       0.152580
C      -1.846908      -0.686890      -0.320023
C      -1.928757       0.824335      -0.280341
C      -0.737317       1.521026       0.328530
H      -2.179760      -1.095508      -1.277115
H      -0.657405      -1.707716       1.156193
H      -0.220977      -2.088768      -0.517793
H      -0.714897       2.613423       0.275036
H       0.186696       0.971790       0.468294
H      -2.865157       1.155391       0.175473
C       2.155792      -0.379864       0.741821
C       2.174475       0.282314      -0.608390
H       2.880939       0.091100       1.410962
H       2.405660      -1.440553       0.654303
H       1.401763      -0.010906      -1.324850
H       2.687366       1.231175      -0.718127

16
Energy: 9.193975739882763
C      -0.423192      -1.277641       0.113628
C      -1.782458      -0.706820      -0.208287
C      -1.843625       0.800024      -0.313689
C      -0.634495       1.525068       0.217436
H      -2.252051      -1.201008      -1.062207
H      -0.426687      -1.756533       1.096337
H      -0.121390      -2.017759      -0.632765
H      -0.555983       2.602479       0.045005
H       0.168101       0.976749       0.697708
H      -2.767509       1.190655       0.119979
C       1.952250      -0.441418       0.716148
C       2.004072       0.367522      -0.549967
H       2.527099       0.044280       1.509040
H       2.357410      -1.443550       0.553335
H       1.367532       0.069306      -1.388043
H       2.616023       1.260579      -0.596436

16
Energy: 6.0161092830851235
C      -0.308686      -1.296607       0.075360
C      -1.693882      -0.722635      -0.094023
C      -1.738326       0.768437      -0.341941
C      -0.514679       1.517871       0.118361
H      -2.284978      -1.280435      -0.824354
H      -0.224741      -1.838933       1.020877
H      -0.058358      -1.974733      -0.745305
H      -0.410545       2.565215      -0.179563
H       0.113203       1.100504       0.897604
H      -2.652390       1.213406       0.059010
C       1.762837      -0.496624       0.674539
C       1.828139       0.450231      -0.491476
H       2.169300      -0.031429       1.576471
H       2.319918      -1.413590       0.465209
H       1.338498       0.155085      -1.423920
H       2.529814       1.275960      -0.468961

16
Energy: -0.25704286413531885
C      -0.233193      -1.356079       0.041523
C      -1.606111      -0.728662       0.006702
C      -1.615821       0.734947      -0.373244
C      -0.390034       1.502874       0.032375
H      -2.288896      -1.308445      -0.620394
H      -0.096961      -1.943453       0.952964
H      -0.062080      -1.994217      -0.829719
H      -0.346656       2.528974      -0.330054
H      -0.014260       1.330721       1.039835
H      -2.515685       1.227478       0.005300
C       1.637444      -0.522662       0.635745
C       1.653464       0.533103      -0.427865
H       1.913905      -0.107723       1.608377
H       2.316586      -1.342279       0.387343
H       1.329472       0.204950      -1.414299
H       2.486997       1.232048      -0.396238

16
Energy: -3.930702536331811
C      -0.127389      -1.403564       0.037331
C      -1.476646      -0.730222       0.123231
C      -1.475012       0.689979      -0.396566
C      -0.251981       1.479556      -0.001562
H      -2.241608      -1.332597      -0.374877
H       0.018914      -2.094043       0.871485
H      -0.003392      -1.937542      -0.908652
H      -0.200844       2.444931      -0.508497
H      -0.129916       1.573943       1.079189
H      -2.381685       1.217288      -0.086358
C       1.467222      -0.563838       0.572933
C       1.474554       0.608059      -0.370506
H       1.549122      -0.235037       1.611873
H       2.276174      -1.262500       0.344607
H       1.293068       0.309459      -1.404594
H       2.367222       1.227483      -0.269996

16
Energy: -4.867550693134998
C       0.011421      -1.458472       0.052358
C      -1.303745      -0.738949       0.219804
C      -1.313125       0.643269      -0.383300
C      -0.113087       1.473360      -0.000581
H      -2.138996      -1.347698      -0.136003
H       0.126083      -2.250040       0.796655
H       0.119796      -1.873534      -0.953159
H       0.053631       2.280591      -0.717728
H      -0.211139       1.884647       1.007552
H      -2.246132       1.174147      -0.177067
C       1.255209      -0.615711       0.478878
C       1.268877       0.670758      -0.305366
H       1.073431      -0.429286       1.540022
H       2.188555      -1.170479       0.353834
H       1.218722       0.478694      -1.379806
H       2.153853       1.269749      -0.076091
[GEOCONV]
energy
  0.000000000000
  0.441889081641
  2.486499723026
  8.607602743448
  9.193975739883
  6.016109283085
 -0.257042864135
 -3.930702536332
 -4.867550693135
max-force
  0.000492806648
  0.000000000000
  0.000000000000
  0.000000000000
  0.000000000000
  0.000000000000
  0.000000000000
  0.000000000000
  0.000496534086
max-step
             nan
             nan
             nan
             nan
             nan
             nan
             nan
             nan
             nan